<?xml version="1.0" encoding="UTF-8"?>

<!-- generated on 2022-07-15 18:47:06 by Eclipse SUMO GUI Version 1.13.0
-->

<configuration>

    <input>
        <net-file value="inter1.net.xml"/>
        <route-files value="inter1.rou.xml"/>
        <additional-files value="inter1.add.xml"/>
    </input>

    <output>
        <netstate-dump value="inter1.output.xml"/>
    </output>

</configuration>
