<?xml version="1.0" encoding="UTF-8"?>

<!-- generated on 2022-07-17 22:20:33 by Eclipse SUMO GUI Version 1.13.0
<configuration xmlns:xsi="http://www.w3.org/2001/XMLSchema-instance" xsi:noNamespaceSchemaLocation="http://sumo.dlr.de/xsd/sumoConfiguration.xsd">

    <input>
        <net-file value="inter1.net.xml"/>
        <route-files value="inter1.rou.xml"/>
        <additional-files value="inter1.add.xml"/>
    </input>

    <output>
        <netstate-dump value="inter1.output.xml"/>
        <tripinfo-output value="tripinfo.xml"/>
    </output>

    <traci_server>
        <remote-port value="33443"/>
    </traci_server>

</configuration>
-->

<tripinfos xmlns:xsi="http://www.w3.org/2001/XMLSchema-instance" xsi:noNamespaceSchemaLocation="http://sumo.dlr.de/xsd/tripinfo_file.xsd">
    <tripinfo id="flow1.1" depart="4.00" departLane="2to0_0" departPos="7.10" departSpeed="0.00" departDelay="2.33" arrival="66.00" arrivalLane="0to4_1" arrivalPos="486.40" arrivalSpeed="14.98" duration="62.00" routeLength="992.90" waitingTime="0.00" waitingCount="0" stopTime="0.00" timeLoss="12.32" rerouteNo="0" devices="tripinfo_flow1.1" vType="ev" speedFactor="2.00" vaporized=""/>
    <tripinfo id="flow0.5" depart="13.00" departLane="1to0_0" departPos="7.10" departSpeed="0.00" departDelay="4.67" arrival="75.00" arrivalLane="0to3_1" arrivalPos="486.40" arrivalSpeed="18.07" duration="62.00" routeLength="992.90" waitingTime="0.00" waitingCount="0" stopTime="0.00" timeLoss="12.16" rerouteNo="0" devices="tripinfo_flow0.5" vType="ev" speedFactor="2.00" vaporized=""/>
    <tripinfo id="flow2.1" depart="5.00" departLane="3to0_0" departPos="7.10" departSpeed="0.00" departDelay="3.33" arrival="80.00" arrivalLane="0to4_2" arrivalPos="486.40" arrivalSpeed="15.61" duration="75.00" routeLength="990.21" waitingTime="6.00" waitingCount="1" stopTime="0.00" timeLoss="24.80" rerouteNo="0" devices="tripinfo_flow2.1" vType="ev" speedFactor="2.00" vaporized=""/>
    <tripinfo id="flow0.4" depart="10.00" departLane="1to0_0" departPos="7.10" departSpeed="0.00" departDelay="3.34" arrival="83.00" arrivalLane="0to3_2" arrivalPos="486.40" arrivalSpeed="16.43" duration="73.00" routeLength="992.90" waitingTime="0.00" waitingCount="0" stopTime="0.00" timeLoss="22.61" rerouteNo="0" devices="tripinfo_flow0.4" vType="ev" speedFactor="2.00" vaporized=""/>
    <tripinfo id="flow0.8" depart="25.00" departLane="1to0_0" departPos="7.10" departSpeed="0.00" departDelay="11.67" arrival="113.00" arrivalLane="0to4_1" arrivalPos="486.40" arrivalSpeed="16.21" duration="88.00" routeLength="974.73" waitingTime="0.00" waitingCount="0" stopTime="0.00" timeLoss="38.82" rerouteNo="0" devices="tripinfo_flow0.8" vType="ev" speedFactor="2.00" vaporized=""/>
    <tripinfo id="flow2.0" depart="0.00" departLane="3to0_0" departPos="5.10" departSpeed="0.00" departDelay="0.00" arrival="121.00" arrivalLane="0to1_0" arrivalPos="486.40" arrivalSpeed="7.59" duration="121.00" routeLength="994.90" waitingTime="0.00" waitingCount="0" stopTime="0.00" timeLoss="20.97" rerouteNo="0" devices="tripinfo_flow2.0" vType="car1" speedFactor="1.08" vaporized=""/>
    <tripinfo id="flow1.7" depart="25.00" departLane="2to0_0" departPos="7.10" departSpeed="0.00" departDelay="13.34" arrival="121.00" arrivalLane="0to4_1" arrivalPos="486.40" arrivalSpeed="17.22" duration="96.00" routeLength="992.90" waitingTime="28.00" waitingCount="1" stopTime="0.00" timeLoss="46.09" rerouteNo="0" devices="tripinfo_flow1.7" vType="ev" speedFactor="2.00" vaporized=""/>
    <tripinfo id="flow0.0" depart="0.00" departLane="1to0_0" departPos="7.10" departSpeed="0.00" departDelay="0.00" arrival="127.00" arrivalLane="0to4_0" arrivalPos="486.40" arrivalSpeed="9.42" duration="127.00" routeLength="974.73" waitingTime="0.00" waitingCount="0" stopTime="0.00" timeLoss="28.88" rerouteNo="0" devices="tripinfo_flow0.0" vType="car3" speedFactor="1.20" vaporized=""/>
    <tripinfo id="flow2.2" depart="8.00" departLane="3to0_0" departPos="5.10" departSpeed="0.00" departDelay="4.67" arrival="130.00" arrivalLane="0to1_0" arrivalPos="486.40" arrivalSpeed="9.23" duration="122.00" routeLength="994.90" waitingTime="0.00" waitingCount="0" stopTime="0.00" timeLoss="21.78" rerouteNo="0" devices="tripinfo_flow2.2" vType="car1" speedFactor="0.90" vaporized=""/>
    <tripinfo id="flow1.11" depart="35.00" departLane="2to0_0" departPos="7.10" departSpeed="0.00" departDelay="16.67" arrival="131.00" arrivalLane="0to1_2" arrivalPos="486.40" arrivalSpeed="17.51" duration="96.00" routeLength="974.73" waitingTime="0.00" waitingCount="0" stopTime="0.00" timeLoss="46.91" rerouteNo="0" devices="tripinfo_flow1.11" vType="ev" speedFactor="2.00" vaporized=""/>
    <tripinfo id="flow2.3" depart="11.00" departLane="3to0_0" departPos="5.10" departSpeed="0.00" departDelay="6.00" arrival="133.00" arrivalLane="0to2_0" arrivalPos="486.40" arrivalSpeed="6.69" duration="122.00" routeLength="976.73" waitingTime="0.00" waitingCount="0" stopTime="0.00" timeLoss="23.41" rerouteNo="0" devices="tripinfo_flow2.3" vType="car1" speedFactor="1.10" vaporized=""/>
    <tripinfo id="flow0.6" depart="14.00" departLane="1to0_0" departPos="3.10" departSpeed="0.00" departDelay="4.00" arrival="137.00" arrivalLane="0to4_0" arrivalPos="486.40" arrivalSpeed="7.75" duration="123.00" routeLength="978.73" waitingTime="0.00" waitingCount="0" stopTime="0.00" timeLoss="24.08" rerouteNo="0" devices="tripinfo_flow0.6" vType="car2" speedFactor="0.89" vaporized=""/>
    <tripinfo id="flow3.2" depart="6.00" departLane="4to0_0" departPos="7.10" departSpeed="0.00" departDelay="2.67" arrival="138.00" arrivalLane="0to1_2" arrivalPos="486.40" arrivalSpeed="16.54" duration="132.00" routeLength="990.21" waitingTime="56.00" waitingCount="2" stopTime="0.00" timeLoss="82.29" rerouteNo="0" devices="tripinfo_flow3.2" vType="ev" speedFactor="2.00" vaporized=""/>
    <tripinfo id="flow2.4" depart="14.00" departLane="3to0_0" departPos="5.10" departSpeed="0.00" departDelay="7.34" arrival="138.00" arrivalLane="0to1_1" arrivalPos="486.40" arrivalSpeed="9.92" duration="124.00" routeLength="994.90" waitingTime="0.00" waitingCount="0" stopTime="0.00" timeLoss="24.22" rerouteNo="0" devices="tripinfo_flow2.4" vType="car1" speedFactor="1.04" vaporized=""/>
    <tripinfo id="flow2.5" depart="17.00" departLane="3to0_0" departPos="5.10" departSpeed="0.00" departDelay="8.67" arrival="138.00" arrivalLane="0to1_0" arrivalPos="486.40" arrivalSpeed="7.98" duration="121.00" routeLength="994.90" waitingTime="0.00" waitingCount="0" stopTime="0.00" timeLoss="20.82" rerouteNo="0" devices="tripinfo_flow2.5" vType="car1" speedFactor="1.03" vaporized=""/>
    <tripinfo id="flow3.10" depart="34.00" departLane="4to0_0" departPos="7.10" departSpeed="0.00" departDelay="17.34" arrival="138.00" arrivalLane="0to2_2" arrivalPos="486.40" arrivalSpeed="16.13" duration="104.00" routeLength="992.90" waitingTime="16.00" waitingCount="5" stopTime="0.00" timeLoss="54.35" rerouteNo="0" devices="tripinfo_flow3.10" vType="ev" speedFactor="2.00" vaporized=""/>
    <tripinfo id="flow0.1" depart="3.00" departLane="1to0_0" departPos="3.10" departSpeed="0.00" departDelay="1.33" arrival="139.00" arrivalLane="0to2_0" arrivalPos="486.40" arrivalSpeed="8.38" duration="136.00" routeLength="994.21" waitingTime="11.00" waitingCount="1" stopTime="0.00" timeLoss="36.44" rerouteNo="0" devices="tripinfo_flow0.1" vType="car2" speedFactor="1.02" vaporized=""/>
    <tripinfo id="flow0.2" depart="6.00" departLane="1to0_0" departPos="5.10" departSpeed="0.00" departDelay="2.67" arrival="144.00" arrivalLane="0to2_0" arrivalPos="486.40" arrivalSpeed="9.26" duration="138.00" routeLength="992.21" waitingTime="6.00" waitingCount="1" stopTime="0.00" timeLoss="37.93" rerouteNo="0" devices="tripinfo_flow0.2" vType="car1" speedFactor="0.92" vaporized=""/>
    <tripinfo id="flow0.3" depart="9.00" departLane="1to0_0" departPos="3.10" departSpeed="0.00" departDelay="4.00" arrival="146.00" arrivalLane="0to2_1" arrivalPos="486.40" arrivalSpeed="9.70" duration="137.00" routeLength="994.21" waitingTime="3.00" waitingCount="1" stopTime="0.00" timeLoss="37.55" rerouteNo="0" devices="tripinfo_flow0.3" vType="car2" speedFactor="0.95" vaporized=""/>
    <tripinfo id="flow3.14" depart="47.00" departLane="4to0_0" departPos="7.10" departSpeed="0.00" departDelay="23.68" arrival="147.00" arrivalLane="0to1_2" arrivalPos="486.40" arrivalSpeed="17.74" duration="100.00" routeLength="990.21" waitingTime="14.00" waitingCount="5" stopTime="0.00" timeLoss="50.29" rerouteNo="0" devices="tripinfo_flow3.14" vType="ev" speedFactor="2.00" vaporized=""/>
    <tripinfo id="flow2.6" depart="19.00" departLane="3to0_0" departPos="7.10" departSpeed="0.00" departDelay="9.00" arrival="150.00" arrivalLane="0to4_0" arrivalPos="486.40" arrivalSpeed="8.48" duration="131.00" routeLength="990.21" waitingTime="0.00" waitingCount="0" stopTime="0.00" timeLoss="31.96" rerouteNo="0" devices="tripinfo_flow2.6" vType="car3" speedFactor="1.12" vaporized=""/>
    <tripinfo id="flow3.1" depart="3.00" departLane="4to0_0" departPos="3.10" departSpeed="0.00" departDelay="1.33" arrival="152.00" arrivalLane="0to2_0" arrivalPos="486.40" arrivalSpeed="8.91" duration="149.00" routeLength="996.90" waitingTime="27.00" waitingCount="1" stopTime="0.00" timeLoss="49.06" rerouteNo="0" devices="tripinfo_flow3.1" vType="car2" speedFactor="1.03" vaporized=""/>
    <tripinfo id="flow1.3" depart="12.00" departLane="2to0_0" departPos="7.10" departSpeed="0.00" departDelay="7.00" arrival="153.00" arrivalLane="0to1_0" arrivalPos="486.40" arrivalSpeed="6.79" duration="141.00" routeLength="974.73" waitingTime="15.00" waitingCount="2" stopTime="0.00" timeLoss="42.57" rerouteNo="0" devices="tripinfo_flow1.3" vType="car3" speedFactor="0.94" vaporized=""/>
    <tripinfo id="flow1.8" depart="26.00" departLane="2to0_0" departPos="7.10" departSpeed="0.00" departDelay="12.67" arrival="156.00" arrivalLane="0to4_0" arrivalPos="486.40" arrivalSpeed="7.64" duration="130.00" routeLength="992.90" waitingTime="0.00" waitingCount="0" stopTime="0.00" timeLoss="30.72" rerouteNo="0" devices="tripinfo_flow1.8" vType="car3" speedFactor="0.90" vaporized=""/>
    <tripinfo id="flow3.0" depart="0.00" departLane="4to0_0" departPos="7.10" departSpeed="0.00" departDelay="0.00" arrival="158.00" arrivalLane="0to3_0" arrivalPos="486.40" arrivalSpeed="7.79" duration="158.00" routeLength="974.73" waitingTime="27.00" waitingCount="2" stopTime="0.00" timeLoss="59.38" rerouteNo="0" devices="tripinfo_flow3.0" vType="car3" speedFactor="0.94" vaporized=""/>
    <tripinfo id="flow3.3" depart="8.00" departLane="4to0_0" departPos="7.10" departSpeed="0.00" departDelay="3.00" arrival="158.00" arrivalLane="0to2_0" arrivalPos="486.40" arrivalSpeed="9.63" duration="150.00" routeLength="992.90" waitingTime="15.00" waitingCount="1" stopTime="0.00" timeLoss="50.56" rerouteNo="0" devices="tripinfo_flow3.3" vType="car3" speedFactor="1.02" vaporized=""/>
    <tripinfo id="flow1.5" depart="19.00" departLane="2to0_0" departPos="5.10" departSpeed="0.00" departDelay="10.67" arrival="158.00" arrivalLane="0to1_0" arrivalPos="486.40" arrivalSpeed="9.48" duration="139.00" routeLength="976.73" waitingTime="6.00" waitingCount="1" stopTime="0.00" timeLoss="40.13" rerouteNo="0" devices="tripinfo_flow1.5" vType="car1" speedFactor="0.87" vaporized=""/>
    <tripinfo id="flow3.6" depart="14.00" departLane="4to0_0" departPos="3.10" departSpeed="0.00" departDelay="4.00" arrival="158.00" arrivalLane="0to3_1" arrivalPos="486.40" arrivalSpeed="8.84" duration="144.00" routeLength="978.73" waitingTime="10.00" waitingCount="1" stopTime="0.00" timeLoss="45.19" rerouteNo="0" devices="tripinfo_flow3.6" vType="car2" speedFactor="0.99" vaporized=""/>
    <tripinfo id="flow3.7" depart="18.00" departLane="4to0_0" departPos="3.10" departSpeed="0.00" departDelay="6.34" arrival="158.00" arrivalLane="0to2_1" arrivalPos="486.40" arrivalSpeed="8.84" duration="140.00" routeLength="996.90" waitingTime="8.00" waitingCount="1" stopTime="0.00" timeLoss="40.24" rerouteNo="0" devices="tripinfo_flow3.7" vType="car2" speedFactor="1.18" vaporized=""/>
    <tripinfo id="flow1.9" depart="29.00" departLane="2to0_0" departPos="5.10" departSpeed="0.00" departDelay="14.01" arrival="159.00" arrivalLane="0to4_1" arrivalPos="486.40" arrivalSpeed="6.77" duration="130.00" routeLength="994.90" waitingTime="0.00" waitingCount="0" stopTime="0.00" timeLoss="30.37" rerouteNo="0" devices="tripinfo_flow1.9" vType="car1" speedFactor="1.09" vaporized=""/>
    <tripinfo id="flow0.11" depart="32.00" departLane="1to0_0" departPos="7.10" departSpeed="0.00" departDelay="13.67" arrival="159.00" arrivalLane="0to3_2" arrivalPos="486.40" arrivalSpeed="9.80" duration="127.00" routeLength="965.70" waitingTime="0.00" waitingCount="0" stopTime="0.00" timeLoss="31.55" rerouteNo="0" devices="tripinfo_flow0.11" vType="car3" speedFactor="1.10" vaporized=""/>
    <tripinfo id="flow3.5" depart="12.00" departLane="4to0_0" departPos="5.10" departSpeed="0.00" departDelay="3.67" arrival="161.00" arrivalLane="0to3_0" arrivalPos="486.40" arrivalSpeed="9.63" duration="149.00" routeLength="976.73" waitingTime="12.00" waitingCount="1" stopTime="0.00" timeLoss="50.94" rerouteNo="0" devices="tripinfo_flow3.5" vType="car1" speedFactor="1.13" vaporized=""/>
    <tripinfo id="flow3.12" depart="39.00" departLane="4to0_0" departPos="3.10" departSpeed="0.00" departDelay="19.01" arrival="163.00" arrivalLane="0to3_1" arrivalPos="486.40" arrivalSpeed="9.52" duration="124.00" routeLength="978.73" waitingTime="0.00" waitingCount="0" stopTime="0.00" timeLoss="24.99" rerouteNo="0" devices="tripinfo_flow3.12" vType="car2" speedFactor="0.99" vaporized=""/>
    <tripinfo id="flow3.8" depart="25.00" departLane="4to0_0" departPos="7.10" departSpeed="0.00" departDelay="11.67" arrival="166.00" arrivalLane="0to2_1" arrivalPos="486.40" arrivalSpeed="7.65" duration="141.00" routeLength="992.90" waitingTime="5.00" waitingCount="3" stopTime="0.00" timeLoss="41.11" rerouteNo="0" devices="tripinfo_flow3.8" vType="car3" speedFactor="1.09" vaporized=""/>
    <tripinfo id="flow3.9" depart="30.00" departLane="4to0_0" departPos="7.10" departSpeed="0.00" departDelay="15.01" arrival="166.00" arrivalLane="0to2_0" arrivalPos="486.40" arrivalSpeed="8.21" duration="136.00" routeLength="992.90" waitingTime="0.00" waitingCount="0" stopTime="0.00" timeLoss="36.29" rerouteNo="0" devices="tripinfo_flow3.9" vType="car3" speedFactor="0.88" vaporized=""/>
    <tripinfo id="flow1.14" depart="44.00" departLane="2to0_0" departPos="5.10" departSpeed="0.00" departDelay="20.68" arrival="167.00" arrivalLane="0to1_0" arrivalPos="486.40" arrivalSpeed="9.02" duration="123.00" routeLength="976.73" waitingTime="0.00" waitingCount="0" stopTime="0.00" timeLoss="24.35" rerouteNo="0" devices="tripinfo_flow1.14" vType="car1" speedFactor="0.97" vaporized=""/>
    <tripinfo id="flow3.13" depart="43.00" departLane="4to0_0" departPos="5.10" departSpeed="0.00" departDelay="21.34" arrival="169.00" arrivalLane="0to2_0" arrivalPos="486.40" arrivalSpeed="9.45" duration="126.00" routeLength="994.90" waitingTime="0.00" waitingCount="0" stopTime="0.00" timeLoss="26.32" rerouteNo="0" devices="tripinfo_flow3.13" vType="car1" speedFactor="1.02" vaporized=""/>
    <tripinfo id="flow1.0" depart="0.00" departLane="2to0_0" departPos="3.10" departSpeed="0.00" departDelay="0.00" arrival="171.00" arrivalLane="0to3_0" arrivalPos="486.40" arrivalSpeed="8.11" duration="171.00" routeLength="994.21" waitingTime="47.00" waitingCount="2" stopTime="0.00" timeLoss="71.47" rerouteNo="0" devices="tripinfo_flow1.0" vType="car2" speedFactor="1.05" vaporized=""/>
    <tripinfo id="flow3.4" depart="10.00" departLane="4to0_0" departPos="5.10" departSpeed="0.00" departDelay="3.34" arrival="174.00" arrivalLane="0to1_0" arrivalPos="486.40" arrivalSpeed="8.88" duration="164.00" routeLength="992.21" waitingTime="28.00" waitingCount="3" stopTime="0.00" timeLoss="63.74" rerouteNo="0" devices="tripinfo_flow3.4" vType="car1" speedFactor="0.83" vaporized=""/>
    <tripinfo id="flow1.2" depart="8.00" departLane="2to0_0" departPos="5.10" departSpeed="0.00" departDelay="4.67" arrival="175.00" arrivalLane="0to3_0" arrivalPos="486.40" arrivalSpeed="9.28" duration="167.00" routeLength="992.21" waitingTime="36.00" waitingCount="2" stopTime="0.00" timeLoss="67.41" rerouteNo="0" devices="tripinfo_flow1.2" vType="car1" speedFactor="1.12" vaporized=""/>
    <tripinfo id="flow1.4" depart="15.00" departLane="2to0_0" departPos="3.10" departSpeed="0.00" departDelay="8.34" arrival="179.00" arrivalLane="0to3_0" arrivalPos="486.40" arrivalSpeed="9.70" duration="164.00" routeLength="994.21" waitingTime="28.00" waitingCount="4" stopTime="0.00" timeLoss="64.26" rerouteNo="0" devices="tripinfo_flow1.4" vType="car2" speedFactor="0.97" vaporized=""/>
    <tripinfo id="flow3.11" depart="36.00" departLane="4to0_0" departPos="3.10" departSpeed="0.00" departDelay="17.67" arrival="180.00" arrivalLane="0to1_0" arrivalPos="486.40" arrivalSpeed="9.40" duration="144.00" routeLength="994.21" waitingTime="3.00" waitingCount="2" stopTime="0.00" timeLoss="44.12" rerouteNo="0" devices="tripinfo_flow3.11" vType="car2" speedFactor="1.02" vaporized=""/>
    <tripinfo id="flow0.14" depart="43.00" departLane="1to0_0" departPos="7.10" departSpeed="0.00" departDelay="19.68" arrival="181.00" arrivalLane="0to2_2" arrivalPos="486.40" arrivalSpeed="19.77" duration="138.00" routeLength="990.21" waitingTime="37.00" waitingCount="3" stopTime="0.00" timeLoss="88.36" rerouteNo="0" devices="tripinfo_flow0.14" vType="ev" speedFactor="2.00" vaporized=""/>
    <tripinfo id="flow1.6" depart="21.00" departLane="2to0_0" departPos="3.10" departSpeed="0.00" departDelay="11.00" arrival="183.00" arrivalLane="0to3_0" arrivalPos="486.40" arrivalSpeed="9.48" duration="162.00" routeLength="994.21" waitingTime="19.00" waitingCount="3" stopTime="0.00" timeLoss="61.83" rerouteNo="0" devices="tripinfo_flow1.6" vType="car2" speedFactor="1.15" vaporized=""/>
    <tripinfo id="flow1.10" depart="33.00" departLane="2to0_0" departPos="3.10" departSpeed="0.00" departDelay="16.34" arrival="186.00" arrivalLane="0to3_1" arrivalPos="486.40" arrivalSpeed="9.25" duration="153.00" routeLength="994.21" waitingTime="13.00" waitingCount="4" stopTime="0.00" timeLoss="52.88" rerouteNo="0" devices="tripinfo_flow1.10" vType="car2" speedFactor="1.17" vaporized=""/>
    <tripinfo id="flow1.12" depart="37.00" departLane="2to0_0" departPos="3.10" departSpeed="0.00" departDelay="17.01" arrival="189.00" arrivalLane="0to3_0" arrivalPos="486.40" arrivalSpeed="9.66" duration="152.00" routeLength="994.21" waitingTime="10.00" waitingCount="5" stopTime="0.00" timeLoss="52.30" rerouteNo="0" devices="tripinfo_flow1.12" vType="car2" speedFactor="1.12" vaporized=""/>
    <tripinfo id="flow2.12" depart="38.00" departLane="3to0_0" departPos="7.10" departSpeed="0.00" departDelay="18.01" arrival="195.00" arrivalLane="0to4_1" arrivalPos="486.40" arrivalSpeed="19.14" duration="157.00" routeLength="990.21" waitingTime="40.00" waitingCount="3" stopTime="0.00" timeLoss="106.88" rerouteNo="0" devices="tripinfo_flow2.12" vType="ev" speedFactor="2.00" vaporized=""/>
    <tripinfo id="flow0.13" depart="39.00" departLane="1to0_0" departPos="3.10" departSpeed="0.00" departDelay="17.34" arrival="197.00" arrivalLane="0to4_0" arrivalPos="486.40" arrivalSpeed="8.79" duration="158.00" routeLength="978.73" waitingTime="31.00" waitingCount="1" stopTime="0.00" timeLoss="59.56" rerouteNo="0" devices="tripinfo_flow0.13" vType="car2" speedFactor="0.96" vaporized=""/>
    <tripinfo id="flow2.7" depart="22.00" departLane="3to0_0" departPos="7.10" departSpeed="0.00" departDelay="10.34" arrival="199.00" arrivalLane="0to1_0" arrivalPos="486.40" arrivalSpeed="8.40" duration="177.00" routeLength="992.90" waitingTime="45.00" waitingCount="1" stopTime="0.00" timeLoss="77.38" rerouteNo="0" devices="tripinfo_flow2.7" vType="car3" speedFactor="1.08" vaporized=""/>
    <tripinfo id="flow0.12" depart="35.00" departLane="1to0_0" departPos="5.10" departSpeed="0.00" departDelay="15.01" arrival="199.00" arrivalLane="0to3_0" arrivalPos="486.40" arrivalSpeed="6.86" duration="164.00" routeLength="994.90" waitingTime="37.00" waitingCount="1" stopTime="0.00" timeLoss="63.95" rerouteNo="0" devices="tripinfo_flow0.12" vType="car1" speedFactor="1.00" vaporized=""/>
    <tripinfo id="flow2.11" depart="35.00" departLane="3to0_0" departPos="5.10" departSpeed="0.00" departDelay="16.67" arrival="200.00" arrivalLane="0to1_1" arrivalPos="486.40" arrivalSpeed="7.33" duration="165.00" routeLength="994.90" waitingTime="38.00" waitingCount="1" stopTime="0.00" timeLoss="65.22" rerouteNo="0" devices="tripinfo_flow2.11" vType="car1" speedFactor="0.94" vaporized=""/>
    <tripinfo id="flow0.9" depart="27.00" departLane="1to0_0" departPos="7.10" departSpeed="0.00" departDelay="12.01" arrival="201.00" arrivalLane="0to4_1" arrivalPos="486.40" arrivalSpeed="6.02" duration="174.00" routeLength="974.73" waitingTime="44.00" waitingCount="1" stopTime="0.00" timeLoss="75.57" rerouteNo="0" devices="tripinfo_flow0.9" vType="car3" speedFactor="0.93" vaporized=""/>
    <tripinfo id="flow2.8" depart="25.00" departLane="3to0_0" departPos="7.10" departSpeed="0.00" departDelay="11.67" arrival="203.00" arrivalLane="0to4_0" arrivalPos="486.40" arrivalSpeed="7.18" duration="178.00" routeLength="990.21" waitingTime="39.00" waitingCount="2" stopTime="0.00" timeLoss="78.74" rerouteNo="0" devices="tripinfo_flow2.8" vType="car3" speedFactor="0.91" vaporized=""/>
    <tripinfo id="flow2.9" depart="27.00" departLane="3to0_0" departPos="3.10" departSpeed="0.00" departDelay="12.01" arrival="203.00" arrivalLane="0to1_0" arrivalPos="486.40" arrivalSpeed="8.39" duration="176.00" routeLength="996.90" waitingTime="45.00" waitingCount="1" stopTime="0.00" timeLoss="75.92" rerouteNo="0" devices="tripinfo_flow2.9" vType="car2" speedFactor="0.95" vaporized=""/>
    <tripinfo id="flow2.14" depart="45.00" departLane="3to0_0" departPos="5.10" departSpeed="0.00" departDelay="21.68" arrival="203.00" arrivalLane="0to1_1" arrivalPos="486.40" arrivalSpeed="7.94" duration="158.00" routeLength="994.90" waitingTime="29.00" waitingCount="1" stopTime="0.00" timeLoss="58.38" rerouteNo="0" devices="tripinfo_flow2.14" vType="car1" speedFactor="0.92" vaporized=""/>
    <tripinfo id="flow0.7" depart="21.00" departLane="1to0_0" departPos="5.10" departSpeed="0.00" departDelay="9.34" arrival="206.00" arrivalLane="0to2_0" arrivalPos="486.40" arrivalSpeed="7.10" duration="185.00" routeLength="992.21" waitingTime="48.00" waitingCount="4" stopTime="0.00" timeLoss="85.74" rerouteNo="0" devices="tripinfo_flow0.7" vType="car1" speedFactor="0.97" vaporized=""/>
    <tripinfo id="flow2.10" depart="31.00" departLane="3to0_0" departPos="7.10" departSpeed="0.00" departDelay="14.34" arrival="206.00" arrivalLane="0to1_2" arrivalPos="486.40" arrivalSpeed="7.34" duration="175.00" routeLength="992.90" waitingTime="41.00" waitingCount="1" stopTime="0.00" timeLoss="75.15" rerouteNo="0" devices="tripinfo_flow2.10" vType="car3" speedFactor="1.05" vaporized=""/>
    <tripinfo id="flow2.13" depart="41.00" departLane="3to0_0" departPos="3.10" departSpeed="0.00" departDelay="19.34" arrival="210.00" arrivalLane="0to4_0" arrivalPos="486.40" arrivalSpeed="9.51" duration="169.00" routeLength="994.21" waitingTime="33.00" waitingCount="2" stopTime="0.00" timeLoss="68.72" rerouteNo="0" devices="tripinfo_flow2.13" vType="car2" speedFactor="0.95" vaporized=""/>
    <tripinfo id="flow0.10" depart="30.00" departLane="1to0_0" departPos="3.10" departSpeed="0.00" departDelay="13.34" arrival="212.00" arrivalLane="0to2_0" arrivalPos="486.40" arrivalSpeed="7.63" duration="182.00" routeLength="994.21" waitingTime="37.00" waitingCount="3" stopTime="0.00" timeLoss="82.31" rerouteNo="0" devices="tripinfo_flow0.10" vType="car2" speedFactor="1.06" vaporized=""/>
    <tripinfo id="flow1.13" depart="40.00" departLane="2to0_0" departPos="3.10" departSpeed="0.00" departDelay="18.34" arrival="240.00" arrivalLane="0to3_0" arrivalPos="486.40" arrivalSpeed="9.83" duration="200.00" routeLength="994.21" waitingTime="55.00" waitingCount="2" stopTime="0.00" timeLoss="99.68" rerouteNo="0" devices="tripinfo_flow1.13" vType="car2" speedFactor="0.91" vaporized=""/>
</tripinfos>
